t 2 /NodeList/1/$ns3::Ipv4L3Protocol/Tx(1) ns3::Ipv4Header (tos 0x0 DSCP Default ECN Not-ECT ttl 64 id 0 protocol 17 offset (bytes) 0 flags [none] length: 92 10.1.1.2 > 10.1.1.1) ns3::UdpHeader (length: 72 49153 > 9) ns3::SeqTsHeader ((seq=0 time=+2s)) Payload (size=52)
t 2 /NodeList/2/$ns3::Ipv4L3Protocol/Tx(1) ns3::Ipv4Header (tos 0x0 DSCP Default ECN Not-ECT ttl 64 id 0 protocol 17 offset (bytes) 0 flags [none] length: 92 10.1.1.3 > 10.1.1.1) ns3::UdpHeader (length: 72 49153 > 9) ns3::SeqTsHeader ((seq=0 time=+2s)) Payload (size=52)
t 2 /NodeList/3/$ns3::Ipv4L3Protocol/Tx(1) ns3::Ipv4Header (tos 0x0 DSCP Default ECN Not-ECT ttl 64 id 0 protocol 17 offset (bytes) 0 flags [none] length: 92 10.1.1.4 > 10.1.1.1) ns3::UdpHeader (length: 72 49153 > 9) ns3::SeqTsHeader ((seq=0 time=+2s)) Payload (size=52)
t 2 /NodeList/4/$ns3::Ipv4L3Protocol/Tx(1) ns3::Ipv4Header (tos 0x0 DSCP Default ECN Not-ECT ttl 64 id 0 protocol 17 offset (bytes) 0 flags [none] length: 92 10.1.1.5 > 10.1.1.1) ns3::UdpHeader (length: 72 49153 > 9) ns3::SeqTsHeader ((seq=0 time=+2s)) Payload (size=52)
t 4 /NodeList/1/$ns3::Ipv4L3Protocol/Tx(1) ns3::Ipv4Header (tos 0x0 DSCP Default ECN Not-ECT ttl 64 id 1 protocol 17 offset (bytes) 0 flags [none] length: 92 10.1.1.2 > 10.1.1.1) ns3::UdpHeader (length: 72 49153 > 9) ns3::SeqTsHeader ((seq=1 time=+4s)) Payload (size=52)
t 4 /NodeList/2/$ns3::Ipv4L3Protocol/Tx(1) ns3::Ipv4Header (tos 0x0 DSCP Default ECN Not-ECT ttl 64 id 1 protocol 17 offset (bytes) 0 flags [none] length: 92 10.1.1.3 > 10.1.1.1) ns3::UdpHeader (length: 72 49153 > 9) ns3::SeqTsHeader ((seq=1 time=+4s)) Payload (size=52)
t 4 /NodeList/3/$ns3::Ipv4L3Protocol/Tx(1) ns3::Ipv4Header (tos 0x0 DSCP Default ECN Not-ECT ttl 64 id 1 protocol 17 offset (bytes) 0 flags [none] length: 92 10.1.1.4 > 10.1.1.1) ns3::UdpHeader (length: 72 49153 > 9) ns3::SeqTsHeader ((seq=1 time=+4s)) Payload (size=52)
t 4 /NodeList/4/$ns3::Ipv4L3Protocol/Tx(1) ns3::Ipv4Header (tos 0x0 DSCP Default ECN Not-ECT ttl 64 id 1 protocol 17 offset (bytes) 0 flags [none] length: 92 10.1.1.5 > 10.1.1.1) ns3::UdpHeader (length: 72 49153 > 9) ns3::SeqTsHeader ((seq=1 time=+4s)) Payload (size=52)
t 6 /NodeList/1/$ns3::Ipv4L3Protocol/Tx(1) ns3::Ipv4Header (tos 0x0 DSCP Default ECN Not-ECT ttl 64 id 2 protocol 17 offset (bytes) 0 flags [none] length: 92 10.1.1.2 > 10.1.1.1) ns3::UdpHeader (length: 72 49153 > 9) ns3::SeqTsHeader ((seq=2 time=+6s)) Payload (size=52)
t 6 /NodeList/2/$ns3::Ipv4L3Protocol/Tx(1) ns3::Ipv4Header (tos 0x0 DSCP Default ECN Not-ECT ttl 64 id 2 protocol 17 offset (bytes) 0 flags [none] length: 92 10.1.1.3 > 10.1.1.1) ns3::UdpHeader (length: 72 49153 > 9) ns3::SeqTsHeader ((seq=2 time=+6s)) Payload (size=52)
t 6 /NodeList/3/$ns3::Ipv4L3Protocol/Tx(1) ns3::Ipv4Header (tos 0x0 DSCP Default ECN Not-ECT ttl 64 id 2 protocol 17 offset (bytes) 0 flags [none] length: 92 10.1.1.4 > 10.1.1.1) ns3::UdpHeader (length: 72 49153 > 9) ns3::SeqTsHeader ((seq=2 time=+6s)) Payload (size=52)
t 6 /NodeList/4/$ns3::Ipv4L3Protocol/Tx(1) ns3::Ipv4Header (tos 0x0 DSCP Default ECN Not-ECT ttl 64 id 2 protocol 17 offset (bytes) 0 flags [none] length: 92 10.1.1.5 > 10.1.1.1) ns3::UdpHeader (length: 72 49153 > 9) ns3::SeqTsHeader ((seq=2 time=+6s)) Payload (size=52)
t 8 /NodeList/1/$ns3::Ipv4L3Protocol/Tx(1) ns3::Ipv4Header (tos 0x0 DSCP Default ECN Not-ECT ttl 64 id 3 protocol 17 offset (bytes) 0 flags [none] length: 92 10.1.1.2 > 10.1.1.1) ns3::UdpHeader (length: 72 49153 > 9) ns3::SeqTsHeader ((seq=3 time=+8s)) Payload (size=52)
d 8 /NodeList/1/$ns3::ArpL3Protocol/Drop ns3::Ipv4Header (tos 0x0 DSCP Default ECN Not-ECT ttl 64 id 3 protocol 17 offset (bytes) 0 flags [none] length: 92 10.1.1.2 > 10.1.1.1) ns3::UdpHeader (length: 72 49153 > 9) ns3::SeqTsHeader ((seq=3 time=+8s)) Payload (size=52)
t 8 /NodeList/2/$ns3::Ipv4L3Protocol/Tx(1) ns3::Ipv4Header (tos 0x0 DSCP Default ECN Not-ECT ttl 64 id 3 protocol 17 offset (bytes) 0 flags [none] length: 92 10.1.1.3 > 10.1.1.1) ns3::UdpHeader (length: 72 49153 > 9) ns3::SeqTsHeader ((seq=3 time=+8s)) Payload (size=52)
d 8 /NodeList/2/$ns3::ArpL3Protocol/Drop ns3::Ipv4Header (tos 0x0 DSCP Default ECN Not-ECT ttl 64 id 3 protocol 17 offset (bytes) 0 flags [none] length: 92 10.1.1.3 > 10.1.1.1) ns3::UdpHeader (length: 72 49153 > 9) ns3::SeqTsHeader ((seq=3 time=+8s)) Payload (size=52)
t 8 /NodeList/3/$ns3::Ipv4L3Protocol/Tx(1) ns3::Ipv4Header (tos 0x0 DSCP Default ECN Not-ECT ttl 64 id 3 protocol 17 offset (bytes) 0 flags [none] length: 92 10.1.1.4 > 10.1.1.1) ns3::UdpHeader (length: 72 49153 > 9) ns3::SeqTsHeader ((seq=3 time=+8s)) Payload (size=52)
d 8 /NodeList/3/$ns3::ArpL3Protocol/Drop ns3::Ipv4Header (tos 0x0 DSCP Default ECN Not-ECT ttl 64 id 3 protocol 17 offset (bytes) 0 flags [none] length: 92 10.1.1.4 > 10.1.1.1) ns3::UdpHeader (length: 72 49153 > 9) ns3::SeqTsHeader ((seq=3 time=+8s)) Payload (size=52)
t 8 /NodeList/4/$ns3::Ipv4L3Protocol/Tx(1) ns3::Ipv4Header (tos 0x0 DSCP Default ECN Not-ECT ttl 64 id 3 protocol 17 offset (bytes) 0 flags [none] length: 92 10.1.1.5 > 10.1.1.1) ns3::UdpHeader (length: 72 49153 > 9) ns3::SeqTsHeader ((seq=3 time=+8s)) Payload (size=52)
d 8 /NodeList/4/$ns3::ArpL3Protocol/Drop ns3::Ipv4Header (tos 0x0 DSCP Default ECN Not-ECT ttl 64 id 3 protocol 17 offset (bytes) 0 flags [none] length: 92 10.1.1.5 > 10.1.1.1) ns3::UdpHeader (length: 72 49153 > 9) ns3::SeqTsHeader ((seq=3 time=+8s)) Payload (size=52)
t 10 /NodeList/1/$ns3::Ipv4L3Protocol/Tx(1) ns3::Ipv4Header (tos 0x0 DSCP Default ECN Not-ECT ttl 64 id 4 protocol 17 offset (bytes) 0 flags [none] length: 92 10.1.1.2 > 10.1.1.1) ns3::UdpHeader (length: 72 49153 > 9) ns3::SeqTsHeader ((seq=4 time=+10s)) Payload (size=52)
d 10 /NodeList/1/$ns3::ArpL3Protocol/Drop ns3::Ipv4Header (tos 0x0 DSCP Default ECN Not-ECT ttl 64 id 4 protocol 17 offset (bytes) 0 flags [none] length: 92 10.1.1.2 > 10.1.1.1) ns3::UdpHeader (length: 72 49153 > 9) ns3::SeqTsHeader ((seq=4 time=+10s)) Payload (size=52)
t 10 /NodeList/2/$ns3::Ipv4L3Protocol/Tx(1) ns3::Ipv4Header (tos 0x0 DSCP Default ECN Not-ECT ttl 64 id 4 protocol 17 offset (bytes) 0 flags [none] length: 92 10.1.1.3 > 10.1.1.1) ns3::UdpHeader (length: 72 49153 > 9) ns3::SeqTsHeader ((seq=4 time=+10s)) Payload (size=52)
d 10 /NodeList/2/$ns3::ArpL3Protocol/Drop ns3::Ipv4Header (tos 0x0 DSCP Default ECN Not-ECT ttl 64 id 4 protocol 17 offset (bytes) 0 flags [none] length: 92 10.1.1.3 > 10.1.1.1) ns3::UdpHeader (length: 72 49153 > 9) ns3::SeqTsHeader ((seq=4 time=+10s)) Payload (size=52)
t 10 /NodeList/3/$ns3::Ipv4L3Protocol/Tx(1) ns3::Ipv4Header (tos 0x0 DSCP Default ECN Not-ECT ttl 64 id 4 protocol 17 offset (bytes) 0 flags [none] length: 92 10.1.1.4 > 10.1.1.1) ns3::UdpHeader (length: 72 49153 > 9) ns3::SeqTsHeader ((seq=4 time=+10s)) Payload (size=52)
d 10 /NodeList/3/$ns3::ArpL3Protocol/Drop ns3::Ipv4Header (tos 0x0 DSCP Default ECN Not-ECT ttl 64 id 4 protocol 17 offset (bytes) 0 flags [none] length: 92 10.1.1.4 > 10.1.1.1) ns3::UdpHeader (length: 72 49153 > 9) ns3::SeqTsHeader ((seq=4 time=+10s)) Payload (size=52)
t 10 /NodeList/4/$ns3::Ipv4L3Protocol/Tx(1) ns3::Ipv4Header (tos 0x0 DSCP Default ECN Not-ECT ttl 64 id 4 protocol 17 offset (bytes) 0 flags [none] length: 92 10.1.1.5 > 10.1.1.1) ns3::UdpHeader (length: 72 49153 > 9) ns3::SeqTsHeader ((seq=4 time=+10s)) Payload (size=52)
d 10 /NodeList/4/$ns3::ArpL3Protocol/Drop ns3::Ipv4Header (tos 0x0 DSCP Default ECN Not-ECT ttl 64 id 4 protocol 17 offset (bytes) 0 flags [none] length: 92 10.1.1.5 > 10.1.1.1) ns3::UdpHeader (length: 72 49153 > 9) ns3::SeqTsHeader ((seq=4 time=+10s)) Payload (size=52)
t 12 /NodeList/1/$ns3::Ipv4L3Protocol/Tx(1) ns3::Ipv4Header (tos 0x0 DSCP Default ECN Not-ECT ttl 64 id 5 protocol 17 offset (bytes) 0 flags [none] length: 92 10.1.1.2 > 10.1.1.1) ns3::UdpHeader (length: 72 49153 > 9) ns3::SeqTsHeader ((seq=5 time=+12s)) Payload (size=52)
d 12 /NodeList/1/$ns3::ArpL3Protocol/Drop ns3::Ipv4Header (tos 0x0 DSCP Default ECN Not-ECT ttl 64 id 5 protocol 17 offset (bytes) 0 flags [none] length: 92 10.1.1.2 > 10.1.1.1) ns3::UdpHeader (length: 72 49153 > 9) ns3::SeqTsHeader ((seq=5 time=+12s)) Payload (size=52)
t 12 /NodeList/2/$ns3::Ipv4L3Protocol/Tx(1) ns3::Ipv4Header (tos 0x0 DSCP Default ECN Not-ECT ttl 64 id 5 protocol 17 offset (bytes) 0 flags [none] length: 92 10.1.1.3 > 10.1.1.1) ns3::UdpHeader (length: 72 49153 > 9) ns3::SeqTsHeader ((seq=5 time=+12s)) Payload (size=52)
d 12 /NodeList/2/$ns3::ArpL3Protocol/Drop ns3::Ipv4Header (tos 0x0 DSCP Default ECN Not-ECT ttl 64 id 5 protocol 17 offset (bytes) 0 flags [none] length: 92 10.1.1.3 > 10.1.1.1) ns3::UdpHeader (length: 72 49153 > 9) ns3::SeqTsHeader ((seq=5 time=+12s)) Payload (size=52)
t 12 /NodeList/3/$ns3::Ipv4L3Protocol/Tx(1) ns3::Ipv4Header (tos 0x0 DSCP Default ECN Not-ECT ttl 64 id 5 protocol 17 offset (bytes) 0 flags [none] length: 92 10.1.1.4 > 10.1.1.1) ns3::UdpHeader (length: 72 49153 > 9) ns3::SeqTsHeader ((seq=5 time=+12s)) Payload (size=52)
d 12 /NodeList/3/$ns3::ArpL3Protocol/Drop ns3::Ipv4Header (tos 0x0 DSCP Default ECN Not-ECT ttl 64 id 5 protocol 17 offset (bytes) 0 flags [none] length: 92 10.1.1.4 > 10.1.1.1) ns3::UdpHeader (length: 72 49153 > 9) ns3::SeqTsHeader ((seq=5 time=+12s)) Payload (size=52)
t 12 /NodeList/4/$ns3::Ipv4L3Protocol/Tx(1) ns3::Ipv4Header (tos 0x0 DSCP Default ECN Not-ECT ttl 64 id 5 protocol 17 offset (bytes) 0 flags [none] length: 92 10.1.1.5 > 10.1.1.1) ns3::UdpHeader (length: 72 49153 > 9) ns3::SeqTsHeader ((seq=5 time=+12s)) Payload (size=52)
d 12 /NodeList/4/$ns3::ArpL3Protocol/Drop ns3::Ipv4Header (tos 0x0 DSCP Default ECN Not-ECT ttl 64 id 5 protocol 17 offset (bytes) 0 flags [none] length: 92 10.1.1.5 > 10.1.1.1) ns3::UdpHeader (length: 72 49153 > 9) ns3::SeqTsHeader ((seq=5 time=+12s)) Payload (size=52)
t 14 /NodeList/1/$ns3::Ipv4L3Protocol/Tx(1) ns3::Ipv4Header (tos 0x0 DSCP Default ECN Not-ECT ttl 64 id 6 protocol 17 offset (bytes) 0 flags [none] length: 92 10.1.1.2 > 10.1.1.1) ns3::UdpHeader (length: 72 49153 > 9) ns3::SeqTsHeader ((seq=6 time=+14s)) Payload (size=52)
d 14 /NodeList/1/$ns3::ArpL3Protocol/Drop ns3::Ipv4Header (tos 0x0 DSCP Default ECN Not-ECT ttl 64 id 6 protocol 17 offset (bytes) 0 flags [none] length: 92 10.1.1.2 > 10.1.1.1) ns3::UdpHeader (length: 72 49153 > 9) ns3::SeqTsHeader ((seq=6 time=+14s)) Payload (size=52)
t 14 /NodeList/2/$ns3::Ipv4L3Protocol/Tx(1) ns3::Ipv4Header (tos 0x0 DSCP Default ECN Not-ECT ttl 64 id 6 protocol 17 offset (bytes) 0 flags [none] length: 92 10.1.1.3 > 10.1.1.1) ns3::UdpHeader (length: 72 49153 > 9) ns3::SeqTsHeader ((seq=6 time=+14s)) Payload (size=52)
d 14 /NodeList/2/$ns3::ArpL3Protocol/Drop ns3::Ipv4Header (tos 0x0 DSCP Default ECN Not-ECT ttl 64 id 6 protocol 17 offset (bytes) 0 flags [none] length: 92 10.1.1.3 > 10.1.1.1) ns3::UdpHeader (length: 72 49153 > 9) ns3::SeqTsHeader ((seq=6 time=+14s)) Payload (size=52)
t 14 /NodeList/3/$ns3::Ipv4L3Protocol/Tx(1) ns3::Ipv4Header (tos 0x0 DSCP Default ECN Not-ECT ttl 64 id 6 protocol 17 offset (bytes) 0 flags [none] length: 92 10.1.1.4 > 10.1.1.1) ns3::UdpHeader (length: 72 49153 > 9) ns3::SeqTsHeader ((seq=6 time=+14s)) Payload (size=52)
d 14 /NodeList/3/$ns3::ArpL3Protocol/Drop ns3::Ipv4Header (tos 0x0 DSCP Default ECN Not-ECT ttl 64 id 6 protocol 17 offset (bytes) 0 flags [none] length: 92 10.1.1.4 > 10.1.1.1) ns3::UdpHeader (length: 72 49153 > 9) ns3::SeqTsHeader ((seq=6 time=+14s)) Payload (size=52)
t 14 /NodeList/4/$ns3::Ipv4L3Protocol/Tx(1) ns3::Ipv4Header (tos 0x0 DSCP Default ECN Not-ECT ttl 64 id 6 protocol 17 offset (bytes) 0 flags [none] length: 92 10.1.1.5 > 10.1.1.1) ns3::UdpHeader (length: 72 49153 > 9) ns3::SeqTsHeader ((seq=6 time=+14s)) Payload (size=52)
d 14 /NodeList/4/$ns3::ArpL3Protocol/Drop ns3::Ipv4Header (tos 0x0 DSCP Default ECN Not-ECT ttl 64 id 6 protocol 17 offset (bytes) 0 flags [none] length: 92 10.1.1.5 > 10.1.1.1) ns3::UdpHeader (length: 72 49153 > 9) ns3::SeqTsHeader ((seq=6 time=+14s)) Payload (size=52)
t 16 /NodeList/1/$ns3::Ipv4L3Protocol/Tx(1) ns3::Ipv4Header (tos 0x0 DSCP Default ECN Not-ECT ttl 64 id 7 protocol 17 offset (bytes) 0 flags [none] length: 92 10.1.1.2 > 10.1.1.1) ns3::UdpHeader (length: 72 49153 > 9) ns3::SeqTsHeader ((seq=7 time=+16s)) Payload (size=52)
d 16 /NodeList/1/$ns3::ArpL3Protocol/Drop ns3::Ipv4Header (tos 0x0 DSCP Default ECN Not-ECT ttl 64 id 7 protocol 17 offset (bytes) 0 flags [none] length: 92 10.1.1.2 > 10.1.1.1) ns3::UdpHeader (length: 72 49153 > 9) ns3::SeqTsHeader ((seq=7 time=+16s)) Payload (size=52)
t 16 /NodeList/2/$ns3::Ipv4L3Protocol/Tx(1) ns3::Ipv4Header (tos 0x0 DSCP Default ECN Not-ECT ttl 64 id 7 protocol 17 offset (bytes) 0 flags [none] length: 92 10.1.1.3 > 10.1.1.1) ns3::UdpHeader (length: 72 49153 > 9) ns3::SeqTsHeader ((seq=7 time=+16s)) Payload (size=52)
d 16 /NodeList/2/$ns3::ArpL3Protocol/Drop ns3::Ipv4Header (tos 0x0 DSCP Default ECN Not-ECT ttl 64 id 7 protocol 17 offset (bytes) 0 flags [none] length: 92 10.1.1.3 > 10.1.1.1) ns3::UdpHeader (length: 72 49153 > 9) ns3::SeqTsHeader ((seq=7 time=+16s)) Payload (size=52)
t 16 /NodeList/3/$ns3::Ipv4L3Protocol/Tx(1) ns3::Ipv4Header (tos 0x0 DSCP Default ECN Not-ECT ttl 64 id 7 protocol 17 offset (bytes) 0 flags [none] length: 92 10.1.1.4 > 10.1.1.1) ns3::UdpHeader (length: 72 49153 > 9) ns3::SeqTsHeader ((seq=7 time=+16s)) Payload (size=52)
d 16 /NodeList/3/$ns3::ArpL3Protocol/Drop ns3::Ipv4Header (tos 0x0 DSCP Default ECN Not-ECT ttl 64 id 7 protocol 17 offset (bytes) 0 flags [none] length: 92 10.1.1.4 > 10.1.1.1) ns3::UdpHeader (length: 72 49153 > 9) ns3::SeqTsHeader ((seq=7 time=+16s)) Payload (size=52)
t 16 /NodeList/4/$ns3::Ipv4L3Protocol/Tx(1) ns3::Ipv4Header (tos 0x0 DSCP Default ECN Not-ECT ttl 64 id 7 protocol 17 offset (bytes) 0 flags [none] length: 92 10.1.1.5 > 10.1.1.1) ns3::UdpHeader (length: 72 49153 > 9) ns3::SeqTsHeader ((seq=7 time=+16s)) Payload (size=52)
d 16 /NodeList/4/$ns3::ArpL3Protocol/Drop ns3::Ipv4Header (tos 0x0 DSCP Default ECN Not-ECT ttl 64 id 7 protocol 17 offset (bytes) 0 flags [none] length: 92 10.1.1.5 > 10.1.1.1) ns3::UdpHeader (length: 72 49153 > 9) ns3::SeqTsHeader ((seq=7 time=+16s)) Payload (size=52)
t 18 /NodeList/1/$ns3::Ipv4L3Protocol/Tx(1) ns3::Ipv4Header (tos 0x0 DSCP Default ECN Not-ECT ttl 64 id 8 protocol 17 offset (bytes) 0 flags [none] length: 92 10.1.1.2 > 10.1.1.1) ns3::UdpHeader (length: 72 49153 > 9) ns3::SeqTsHeader ((seq=8 time=+18s)) Payload (size=52)
d 18 /NodeList/1/$ns3::ArpL3Protocol/Drop ns3::Ipv4Header (tos 0x0 DSCP Default ECN Not-ECT ttl 64 id 8 protocol 17 offset (bytes) 0 flags [none] length: 92 10.1.1.2 > 10.1.1.1) ns3::UdpHeader (length: 72 49153 > 9) ns3::SeqTsHeader ((seq=8 time=+18s)) Payload (size=52)
t 18 /NodeList/2/$ns3::Ipv4L3Protocol/Tx(1) ns3::Ipv4Header (tos 0x0 DSCP Default ECN Not-ECT ttl 64 id 8 protocol 17 offset (bytes) 0 flags [none] length: 92 10.1.1.3 > 10.1.1.1) ns3::UdpHeader (length: 72 49153 > 9) ns3::SeqTsHeader ((seq=8 time=+18s)) Payload (size=52)
d 18 /NodeList/2/$ns3::ArpL3Protocol/Drop ns3::Ipv4Header (tos 0x0 DSCP Default ECN Not-ECT ttl 64 id 8 protocol 17 offset (bytes) 0 flags [none] length: 92 10.1.1.3 > 10.1.1.1) ns3::UdpHeader (length: 72 49153 > 9) ns3::SeqTsHeader ((seq=8 time=+18s)) Payload (size=52)
t 18 /NodeList/3/$ns3::Ipv4L3Protocol/Tx(1) ns3::Ipv4Header (tos 0x0 DSCP Default ECN Not-ECT ttl 64 id 8 protocol 17 offset (bytes) 0 flags [none] length: 92 10.1.1.4 > 10.1.1.1) ns3::UdpHeader (length: 72 49153 > 9) ns3::SeqTsHeader ((seq=8 time=+18s)) Payload (size=52)
d 18 /NodeList/3/$ns3::ArpL3Protocol/Drop ns3::Ipv4Header (tos 0x0 DSCP Default ECN Not-ECT ttl 64 id 8 protocol 17 offset (bytes) 0 flags [none] length: 92 10.1.1.4 > 10.1.1.1) ns3::UdpHeader (length: 72 49153 > 9) ns3::SeqTsHeader ((seq=8 time=+18s)) Payload (size=52)
t 18 /NodeList/4/$ns3::Ipv4L3Protocol/Tx(1) ns3::Ipv4Header (tos 0x0 DSCP Default ECN Not-ECT ttl 64 id 8 protocol 17 offset (bytes) 0 flags [none] length: 92 10.1.1.5 > 10.1.1.1) ns3::UdpHeader (length: 72 49153 > 9) ns3::SeqTsHeader ((seq=8 time=+18s)) Payload (size=52)
d 18 /NodeList/4/$ns3::ArpL3Protocol/Drop ns3::Ipv4Header (tos 0x0 DSCP Default ECN Not-ECT ttl 64 id 8 protocol 17 offset (bytes) 0 flags [none] length: 92 10.1.1.5 > 10.1.1.1) ns3::UdpHeader (length: 72 49153 > 9) ns3::SeqTsHeader ((seq=8 time=+18s)) Payload (size=52)
