+ 2 /NodeList/3/DeviceList/0/$ns3::lrwpan::LrWpanNetDevice/Mac/MacTxEnqueue ns3::lrwpan::LrWpanMacHeader (  Frame Type = 1, Sec Enable = 0, Frame Pending = 0, Ack Request = 0, PAN ID Compress = 1, Frame Vers = 1, Dst Addrs Mode = 2, Src Addr Mode = 2, Sequence Num = 151, Dst Addr Pan ID = 4660, m_addrShortDstAddr = ff:ff, Src Addr Pan ID = 4660, m_addrShortSrcAddr = ff:ff) ns3::ArpHeader (request source mac: 00-06-02:00:00:00:ff:ff source ipv4: 10.1.1.4 dest ipv4: 10.1.1.1) ns3::lrwpan::LrWpanMacTrailer ( FCS = 0)
t +2.00224s /NodeList/3/DeviceList/0/$ns3::lrwpan::LrWpanNetDevice/Mac/MacTx ns3::lrwpan::LrWpanMacHeader (  Frame Type = 1, Sec Enable = 0, Frame Pending = 0, Ack Request = 0, PAN ID Compress = 1, Frame Vers = 1, Dst Addrs Mode = 2, Src Addr Mode = 2, Sequence Num = 151, Dst Addr Pan ID = 4660, m_addrShortDstAddr = ff:ff, Src Addr Pan ID = 4660, m_addrShortSrcAddr = ff:ff) ns3::ArpHeader (request source mac: 00-06-02:00:00:00:ff:ff source ipv4: 10.1.1.4 dest ipv4: 10.1.1.1) ns3::lrwpan::LrWpanMacTrailer ( FCS = 0)
- 2.00368 /NodeList/3/DeviceList/0/$ns3::lrwpan::LrWpanNetDevice/Mac/MacTxDequeue ns3::lrwpan::LrWpanMacHeader (  Frame Type = 1, Sec Enable = 0, Frame Pending = 0, Ack Request = 0, PAN ID Compress = 1, Frame Vers = 1, Dst Addrs Mode = 2, Src Addr Mode = 2, Sequence Num = 151, Dst Addr Pan ID = 4660, m_addrShortDstAddr = ff:ff, Src Addr Pan ID = 4660, m_addrShortSrcAddr = ff:ff) ns3::ArpHeader (request source mac: 00-06-02:00:00:00:ff:ff source ipv4: 10.1.1.4 dest ipv4: 10.1.1.1) ns3::lrwpan::LrWpanMacTrailer ( FCS = 0)
r 2.00368 /NodeList/4/DeviceList/0/$ns3::lrwpan::LrWpanNetDevice/Mac/MacRx ns3::lrwpan::LrWpanMacHeader (  Frame Type = 1, Sec Enable = 0, Frame Pending = 0, Ack Request = 0, PAN ID Compress = 1, Frame Vers = 1, Dst Addrs Mode = 2, Src Addr Mode = 2, Sequence Num = 151, Dst Addr Pan ID = 4660, m_addrShortDstAddr = ff:ff, Src Addr Pan ID = 4660, m_addrShortSrcAddr = ff:ff) ns3::ArpHeader (request source mac: 00-06-02:00:00:00:ff:ff source ipv4: 10.1.1.4 dest ipv4: 10.1.1.1) ns3::lrwpan::LrWpanMacTrailer ( FCS = 0)
r 2.00368 /NodeList/0/DeviceList/0/$ns3::lrwpan::LrWpanNetDevice/Mac/MacRx ns3::lrwpan::LrWpanMacHeader (  Frame Type = 1, Sec Enable = 0, Frame Pending = 0, Ack Request = 0, PAN ID Compress = 1, Frame Vers = 1, Dst Addrs Mode = 2, Src Addr Mode = 2, Sequence Num = 151, Dst Addr Pan ID = 4660, m_addrShortDstAddr = ff:ff, Src Addr Pan ID = 4660, m_addrShortSrcAddr = ff:ff) ns3::ArpHeader (request source mac: 00-06-02:00:00:00:ff:ff source ipv4: 10.1.1.4 dest ipv4: 10.1.1.1) ns3::lrwpan::LrWpanMacTrailer ( FCS = 0)
r 2.00368 /NodeList/1/DeviceList/0/$ns3::lrwpan::LrWpanNetDevice/Mac/MacRx ns3::lrwpan::LrWpanMacHeader (  Frame Type = 1, Sec Enable = 0, Frame Pending = 0, Ack Request = 0, PAN ID Compress = 1, Frame Vers = 1, Dst Addrs Mode = 2, Src Addr Mode = 2, Sequence Num = 151, Dst Addr Pan ID = 4660, m_addrShortDstAddr = ff:ff, Src Addr Pan ID = 4660, m_addrShortSrcAddr = ff:ff) ns3::ArpHeader (request source mac: 00-06-02:00:00:00:ff:ff source ipv4: 10.1.1.4 dest ipv4: 10.1.1.1) ns3::lrwpan::LrWpanMacTrailer ( FCS = 0)
r 2.00368 /NodeList/2/DeviceList/0/$ns3::lrwpan::LrWpanNetDevice/Mac/MacRx ns3::lrwpan::LrWpanMacHeader (  Frame Type = 1, Sec Enable = 0, Frame Pending = 0, Ack Request = 0, PAN ID Compress = 1, Frame Vers = 1, Dst Addrs Mode = 2, Src Addr Mode = 2, Sequence Num = 151, Dst Addr Pan ID = 4660, m_addrShortDstAddr = ff:ff, Src Addr Pan ID = 4660, m_addrShortSrcAddr = ff:ff) ns3::ArpHeader (request source mac: 00-06-02:00:00:00:ff:ff source ipv4: 10.1.1.4 dest ipv4: 10.1.1.1) ns3::lrwpan::LrWpanMacTrailer ( FCS = 0)
+ 2.005 /NodeList/1/DeviceList/0/$ns3::lrwpan::LrWpanNetDevice/Mac/MacTxEnqueue ns3::lrwpan::LrWpanMacHeader (  Frame Type = 1, Sec Enable = 0, Frame Pending = 0, Ack Request = 0, PAN ID Compress = 1, Frame Vers = 1, Dst Addrs Mode = 2, Src Addr Mode = 2, Sequence Num = 252, Dst Addr Pan ID = 4660, m_addrShortDstAddr = ff:ff, Src Addr Pan ID = 4660, m_addrShortSrcAddr = ff:ff) ns3::ArpHeader (request source mac: 00-06-02:00:00:00:ff:ff source ipv4: 10.1.1.2 dest ipv4: 10.1.1.1) ns3::lrwpan::LrWpanMacTrailer ( FCS = 0)
+ 2.005 /NodeList/2/DeviceList/0/$ns3::lrwpan::LrWpanNetDevice/Mac/MacTxEnqueue ns3::lrwpan::LrWpanMacHeader (  Frame Type = 1, Sec Enable = 0, Frame Pending = 0, Ack Request = 0, PAN ID Compress = 1, Frame Vers = 1, Dst Addrs Mode = 2, Src Addr Mode = 2, Sequence Num = 182, Dst Addr Pan ID = 4660, m_addrShortDstAddr = ff:ff, Src Addr Pan ID = 4660, m_addrShortSrcAddr = ff:ff) ns3::ArpHeader (request source mac: 00-06-02:00:00:00:ff:ff source ipv4: 10.1.1.3 dest ipv4: 10.1.1.1) ns3::lrwpan::LrWpanMacTrailer ( FCS = 0)
+ 2.005 /NodeList/4/DeviceList/0/$ns3::lrwpan::LrWpanNetDevice/Mac/MacTxEnqueue ns3::lrwpan::LrWpanMacHeader (  Frame Type = 1, Sec Enable = 0, Frame Pending = 0, Ack Request = 0, PAN ID Compress = 1, Frame Vers = 1, Dst Addrs Mode = 2, Src Addr Mode = 2, Sequence Num = 107, Dst Addr Pan ID = 4660, m_addrShortDstAddr = ff:ff, Src Addr Pan ID = 4660, m_addrShortSrcAddr = ff:ff) ns3::ArpHeader (request source mac: 00-06-02:00:00:00:ff:ff source ipv4: 10.1.1.5 dest ipv4: 10.1.1.1) ns3::lrwpan::LrWpanMacTrailer ( FCS = 0)
t +2.00532s /NodeList/4/DeviceList/0/$ns3::lrwpan::LrWpanNetDevice/Mac/MacTx ns3::lrwpan::LrWpanMacHeader (  Frame Type = 1, Sec Enable = 0, Frame Pending = 0, Ack Request = 0, PAN ID Compress = 1, Frame Vers = 1, Dst Addrs Mode = 2, Src Addr Mode = 2, Sequence Num = 107, Dst Addr Pan ID = 4660, m_addrShortDstAddr = ff:ff, Src Addr Pan ID = 4660, m_addrShortSrcAddr = ff:ff) ns3::ArpHeader (request source mac: 00-06-02:00:00:00:ff:ff source ipv4: 10.1.1.5 dest ipv4: 10.1.1.1) ns3::lrwpan::LrWpanMacTrailer ( FCS = 0)
- 2.00676 /NodeList/4/DeviceList/0/$ns3::lrwpan::LrWpanNetDevice/Mac/MacTxDequeue ns3::lrwpan::LrWpanMacHeader (  Frame Type = 1, Sec Enable = 0, Frame Pending = 0, Ack Request = 0, PAN ID Compress = 1, Frame Vers = 1, Dst Addrs Mode = 2, Src Addr Mode = 2, Sequence Num = 107, Dst Addr Pan ID = 4660, m_addrShortDstAddr = ff:ff, Src Addr Pan ID = 4660, m_addrShortSrcAddr = ff:ff) ns3::ArpHeader (request source mac: 00-06-02:00:00:00:ff:ff source ipv4: 10.1.1.5 dest ipv4: 10.1.1.1) ns3::lrwpan::LrWpanMacTrailer ( FCS = 0)
r 2.00676 /NodeList/3/DeviceList/0/$ns3::lrwpan::LrWpanNetDevice/Mac/MacRx ns3::lrwpan::LrWpanMacHeader (  Frame Type = 1, Sec Enable = 0, Frame Pending = 0, Ack Request = 0, PAN ID Compress = 1, Frame Vers = 1, Dst Addrs Mode = 2, Src Addr Mode = 2, Sequence Num = 107, Dst Addr Pan ID = 4660, m_addrShortDstAddr = ff:ff, Src Addr Pan ID = 4660, m_addrShortSrcAddr = ff:ff) ns3::ArpHeader (request source mac: 00-06-02:00:00:00:ff:ff source ipv4: 10.1.1.5 dest ipv4: 10.1.1.1) ns3::lrwpan::LrWpanMacTrailer ( FCS = 0)
r 2.00676 /NodeList/0/DeviceList/0/$ns3::lrwpan::LrWpanNetDevice/Mac/MacRx ns3::lrwpan::LrWpanMacHeader (  Frame Type = 1, Sec Enable = 0, Frame Pending = 0, Ack Request = 0, PAN ID Compress = 1, Frame Vers = 1, Dst Addrs Mode = 2, Src Addr Mode = 2, Sequence Num = 107, Dst Addr Pan ID = 4660, m_addrShortDstAddr = ff:ff, Src Addr Pan ID = 4660, m_addrShortSrcAddr = ff:ff) ns3::ArpHeader (request source mac: 00-06-02:00:00:00:ff:ff source ipv4: 10.1.1.5 dest ipv4: 10.1.1.1) ns3::lrwpan::LrWpanMacTrailer ( FCS = 0)
r 2.00676 /NodeList/1/DeviceList/0/$ns3::lrwpan::LrWpanNetDevice/Mac/MacRx ns3::lrwpan::LrWpanMacHeader (  Frame Type = 1, Sec Enable = 0, Frame Pending = 0, Ack Request = 0, PAN ID Compress = 1, Frame Vers = 1, Dst Addrs Mode = 2, Src Addr Mode = 2, Sequence Num = 107, Dst Addr Pan ID = 4660, m_addrShortDstAddr = ff:ff, Src Addr Pan ID = 4660, m_addrShortSrcAddr = ff:ff) ns3::ArpHeader (request source mac: 00-06-02:00:00:00:ff:ff source ipv4: 10.1.1.5 dest ipv4: 10.1.1.1) ns3::lrwpan::LrWpanMacTrailer ( FCS = 0)
r 2.00676 /NodeList/2/DeviceList/0/$ns3::lrwpan::LrWpanNetDevice/Mac/MacRx ns3::lrwpan::LrWpanMacHeader (  Frame Type = 1, Sec Enable = 0, Frame Pending = 0, Ack Request = 0, PAN ID Compress = 1, Frame Vers = 1, Dst Addrs Mode = 2, Src Addr Mode = 2, Sequence Num = 107, Dst Addr Pan ID = 4660, m_addrShortDstAddr = ff:ff, Src Addr Pan ID = 4660, m_addrShortSrcAddr = ff:ff) ns3::ArpHeader (request source mac: 00-06-02:00:00:00:ff:ff source ipv4: 10.1.1.5 dest ipv4: 10.1.1.1) ns3::lrwpan::LrWpanMacTrailer ( FCS = 0)
t +2.00833s /NodeList/2/DeviceList/0/$ns3::lrwpan::LrWpanNetDevice/Mac/MacTx ns3::lrwpan::LrWpanMacHeader (  Frame Type = 1, Sec Enable = 0, Frame Pending = 0, Ack Request = 0, PAN ID Compress = 1, Frame Vers = 1, Dst Addrs Mode = 2, Src Addr Mode = 2, Sequence Num = 182, Dst Addr Pan ID = 4660, m_addrShortDstAddr = ff:ff, Src Addr Pan ID = 4660, m_addrShortSrcAddr = ff:ff) ns3::ArpHeader (request source mac: 00-06-02:00:00:00:ff:ff source ipv4: 10.1.1.3 dest ipv4: 10.1.1.1) ns3::lrwpan::LrWpanMacTrailer ( FCS = 0)
- 2.00977 /NodeList/2/DeviceList/0/$ns3::lrwpan::LrWpanNetDevice/Mac/MacTxDequeue ns3::lrwpan::LrWpanMacHeader (  Frame Type = 1, Sec Enable = 0, Frame Pending = 0, Ack Request = 0, PAN ID Compress = 1, Frame Vers = 1, Dst Addrs Mode = 2, Src Addr Mode = 2, Sequence Num = 182, Dst Addr Pan ID = 4660, m_addrShortDstAddr = ff:ff, Src Addr Pan ID = 4660, m_addrShortSrcAddr = ff:ff) ns3::ArpHeader (request source mac: 00-06-02:00:00:00:ff:ff source ipv4: 10.1.1.3 dest ipv4: 10.1.1.1) ns3::lrwpan::LrWpanMacTrailer ( FCS = 0)
r 2.00977 /NodeList/1/DeviceList/0/$ns3::lrwpan::LrWpanNetDevice/Mac/MacRx ns3::lrwpan::LrWpanMacHeader (  Frame Type = 1, Sec Enable = 0, Frame Pending = 0, Ack Request = 0, PAN ID Compress = 1, Frame Vers = 1, Dst Addrs Mode = 2, Src Addr Mode = 2, Sequence Num = 182, Dst Addr Pan ID = 4660, m_addrShortDstAddr = ff:ff, Src Addr Pan ID = 4660, m_addrShortSrcAddr = ff:ff) ns3::ArpHeader (request source mac: 00-06-02:00:00:00:ff:ff source ipv4: 10.1.1.3 dest ipv4: 10.1.1.1) ns3::lrwpan::LrWpanMacTrailer ( FCS = 0)
r 2.00977 /NodeList/0/DeviceList/0/$ns3::lrwpan::LrWpanNetDevice/Mac/MacRx ns3::lrwpan::LrWpanMacHeader (  Frame Type = 1, Sec Enable = 0, Frame Pending = 0, Ack Request = 0, PAN ID Compress = 1, Frame Vers = 1, Dst Addrs Mode = 2, Src Addr Mode = 2, Sequence Num = 182, Dst Addr Pan ID = 4660, m_addrShortDstAddr = ff:ff, Src Addr Pan ID = 4660, m_addrShortSrcAddr = ff:ff) ns3::ArpHeader (request source mac: 00-06-02:00:00:00:ff:ff source ipv4: 10.1.1.3 dest ipv4: 10.1.1.1) ns3::lrwpan::LrWpanMacTrailer ( FCS = 0)
r 2.00977 /NodeList/3/DeviceList/0/$ns3::lrwpan::LrWpanNetDevice/Mac/MacRx ns3::lrwpan::LrWpanMacHeader (  Frame Type = 1, Sec Enable = 0, Frame Pending = 0, Ack Request = 0, PAN ID Compress = 1, Frame Vers = 1, Dst Addrs Mode = 2, Src Addr Mode = 2, Sequence Num = 182, Dst Addr Pan ID = 4660, m_addrShortDstAddr = ff:ff, Src Addr Pan ID = 4660, m_addrShortSrcAddr = ff:ff) ns3::ArpHeader (request source mac: 00-06-02:00:00:00:ff:ff source ipv4: 10.1.1.3 dest ipv4: 10.1.1.1) ns3::lrwpan::LrWpanMacTrailer ( FCS = 0)
r 2.00977 /NodeList/4/DeviceList/0/$ns3::lrwpan::LrWpanNetDevice/Mac/MacRx ns3::lrwpan::LrWpanMacHeader (  Frame Type = 1, Sec Enable = 0, Frame Pending = 0, Ack Request = 0, PAN ID Compress = 1, Frame Vers = 1, Dst Addrs Mode = 2, Src Addr Mode = 2, Sequence Num = 182, Dst Addr Pan ID = 4660, m_addrShortDstAddr = ff:ff, Src Addr Pan ID = 4660, m_addrShortSrcAddr = ff:ff) ns3::ArpHeader (request source mac: 00-06-02:00:00:00:ff:ff source ipv4: 10.1.1.3 dest ipv4: 10.1.1.1) ns3::lrwpan::LrWpanMacTrailer ( FCS = 0)
t +2.01518s /NodeList/1/DeviceList/0/$ns3::lrwpan::LrWpanNetDevice/Mac/MacTx ns3::lrwpan::LrWpanMacHeader (  Frame Type = 1, Sec Enable = 0, Frame Pending = 0, Ack Request = 0, PAN ID Compress = 1, Frame Vers = 1, Dst Addrs Mode = 2, Src Addr Mode = 2, Sequence Num = 252, Dst Addr Pan ID = 4660, m_addrShortDstAddr = ff:ff, Src Addr Pan ID = 4660, m_addrShortSrcAddr = ff:ff) ns3::ArpHeader (request source mac: 00-06-02:00:00:00:ff:ff source ipv4: 10.1.1.2 dest ipv4: 10.1.1.1) ns3::lrwpan::LrWpanMacTrailer ( FCS = 0)
- 2.01662 /NodeList/1/DeviceList/0/$ns3::lrwpan::LrWpanNetDevice/Mac/MacTxDequeue ns3::lrwpan::LrWpanMacHeader (  Frame Type = 1, Sec Enable = 0, Frame Pending = 0, Ack Request = 0, PAN ID Compress = 1, Frame Vers = 1, Dst Addrs Mode = 2, Src Addr Mode = 2, Sequence Num = 252, Dst Addr Pan ID = 4660, m_addrShortDstAddr = ff:ff, Src Addr Pan ID = 4660, m_addrShortSrcAddr = ff:ff) ns3::ArpHeader (request source mac: 00-06-02:00:00:00:ff:ff source ipv4: 10.1.1.2 dest ipv4: 10.1.1.1) ns3::lrwpan::LrWpanMacTrailer ( FCS = 0)
r 2.01662 /NodeList/2/DeviceList/0/$ns3::lrwpan::LrWpanNetDevice/Mac/MacRx ns3::lrwpan::LrWpanMacHeader (  Frame Type = 1, Sec Enable = 0, Frame Pending = 0, Ack Request = 0, PAN ID Compress = 1, Frame Vers = 1, Dst Addrs Mode = 2, Src Addr Mode = 2, Sequence Num = 252, Dst Addr Pan ID = 4660, m_addrShortDstAddr = ff:ff, Src Addr Pan ID = 4660, m_addrShortSrcAddr = ff:ff) ns3::ArpHeader (request source mac: 00-06-02:00:00:00:ff:ff source ipv4: 10.1.1.2 dest ipv4: 10.1.1.1) ns3::lrwpan::LrWpanMacTrailer ( FCS = 0)
r 2.01662 /NodeList/0/DeviceList/0/$ns3::lrwpan::LrWpanNetDevice/Mac/MacRx ns3::lrwpan::LrWpanMacHeader (  Frame Type = 1, Sec Enable = 0, Frame Pending = 0, Ack Request = 0, PAN ID Compress = 1, Frame Vers = 1, Dst Addrs Mode = 2, Src Addr Mode = 2, Sequence Num = 252, Dst Addr Pan ID = 4660, m_addrShortDstAddr = ff:ff, Src Addr Pan ID = 4660, m_addrShortSrcAddr = ff:ff) ns3::ArpHeader (request source mac: 00-06-02:00:00:00:ff:ff source ipv4: 10.1.1.2 dest ipv4: 10.1.1.1) ns3::lrwpan::LrWpanMacTrailer ( FCS = 0)
r 2.01662 /NodeList/4/DeviceList/0/$ns3::lrwpan::LrWpanNetDevice/Mac/MacRx ns3::lrwpan::LrWpanMacHeader (  Frame Type = 1, Sec Enable = 0, Frame Pending = 0, Ack Request = 0, PAN ID Compress = 1, Frame Vers = 1, Dst Addrs Mode = 2, Src Addr Mode = 2, Sequence Num = 252, Dst Addr Pan ID = 4660, m_addrShortDstAddr = ff:ff, Src Addr Pan ID = 4660, m_addrShortSrcAddr = ff:ff) ns3::ArpHeader (request source mac: 00-06-02:00:00:00:ff:ff source ipv4: 10.1.1.2 dest ipv4: 10.1.1.1) ns3::lrwpan::LrWpanMacTrailer ( FCS = 0)
r 2.01662 /NodeList/3/DeviceList/0/$ns3::lrwpan::LrWpanNetDevice/Mac/MacRx ns3::lrwpan::LrWpanMacHeader (  Frame Type = 1, Sec Enable = 0, Frame Pending = 0, Ack Request = 0, PAN ID Compress = 1, Frame Vers = 1, Dst Addrs Mode = 2, Src Addr Mode = 2, Sequence Num = 252, Dst Addr Pan ID = 4660, m_addrShortDstAddr = ff:ff, Src Addr Pan ID = 4660, m_addrShortSrcAddr = ff:ff) ns3::ArpHeader (request source mac: 00-06-02:00:00:00:ff:ff source ipv4: 10.1.1.2 dest ipv4: 10.1.1.1) ns3::lrwpan::LrWpanMacTrailer ( FCS = 0)
+ 3 /NodeList/1/DeviceList/0/$ns3::lrwpan::LrWpanNetDevice/Mac/MacTxEnqueue ns3::lrwpan::LrWpanMacHeader (  Frame Type = 1, Sec Enable = 0, Frame Pending = 0, Ack Request = 0, PAN ID Compress = 1, Frame Vers = 1, Dst Addrs Mode = 2, Src Addr Mode = 2, Sequence Num = 253, Dst Addr Pan ID = 4660, m_addrShortDstAddr = ff:ff, Src Addr Pan ID = 4660, m_addrShortSrcAddr = ff:ff) ns3::ArpHeader (request source mac: 00-06-02:00:00:00:ff:ff source ipv4: 10.1.1.2 dest ipv4: 10.1.1.1) ns3::lrwpan::LrWpanMacTrailer ( FCS = 0)
+ 3 /NodeList/2/DeviceList/0/$ns3::lrwpan::LrWpanNetDevice/Mac/MacTxEnqueue ns3::lrwpan::LrWpanMacHeader (  Frame Type = 1, Sec Enable = 0, Frame Pending = 0, Ack Request = 0, PAN ID Compress = 1, Frame Vers = 1, Dst Addrs Mode = 2, Src Addr Mode = 2, Sequence Num = 183, Dst Addr Pan ID = 4660, m_addrShortDstAddr = ff:ff, Src Addr Pan ID = 4660, m_addrShortSrcAddr = ff:ff) ns3::ArpHeader (request source mac: 00-06-02:00:00:00:ff:ff source ipv4: 10.1.1.3 dest ipv4: 10.1.1.1) ns3::lrwpan::LrWpanMacTrailer ( FCS = 0)
+ 3 /NodeList/3/DeviceList/0/$ns3::lrwpan::LrWpanNetDevice/Mac/MacTxEnqueue ns3::lrwpan::LrWpanMacHeader (  Frame Type = 1, Sec Enable = 0, Frame Pending = 0, Ack Request = 0, PAN ID Compress = 1, Frame Vers = 1, Dst Addrs Mode = 2, Src Addr Mode = 2, Sequence Num = 152, Dst Addr Pan ID = 4660, m_addrShortDstAddr = ff:ff, Src Addr Pan ID = 4660, m_addrShortSrcAddr = ff:ff) ns3::ArpHeader (request source mac: 00-06-02:00:00:00:ff:ff source ipv4: 10.1.1.4 dest ipv4: 10.1.1.1) ns3::lrwpan::LrWpanMacTrailer ( FCS = 0)
+ 3 /NodeList/4/DeviceList/0/$ns3::lrwpan::LrWpanNetDevice/Mac/MacTxEnqueue ns3::lrwpan::LrWpanMacHeader (  Frame Type = 1, Sec Enable = 0, Frame Pending = 0, Ack Request = 0, PAN ID Compress = 1, Frame Vers = 1, Dst Addrs Mode = 2, Src Addr Mode = 2, Sequence Num = 108, Dst Addr Pan ID = 4660, m_addrShortDstAddr = ff:ff, Src Addr Pan ID = 4660, m_addrShortSrcAddr = ff:ff) ns3::ArpHeader (request source mac: 00-06-02:00:00:00:ff:ff source ipv4: 10.1.1.5 dest ipv4: 10.1.1.1) ns3::lrwpan::LrWpanMacTrailer ( FCS = 0)
t +3.00064s /NodeList/3/DeviceList/0/$ns3::lrwpan::LrWpanNetDevice/Mac/MacTx ns3::lrwpan::LrWpanMacHeader (  Frame Type = 1, Sec Enable = 0, Frame Pending = 0, Ack Request = 0, PAN ID Compress = 1, Frame Vers = 1, Dst Addrs Mode = 2, Src Addr Mode = 2, Sequence Num = 152, Dst Addr Pan ID = 4660, m_addrShortDstAddr = ff:ff, Src Addr Pan ID = 4660, m_addrShortSrcAddr = ff:ff) ns3::ArpHeader (request source mac: 00-06-02:00:00:00:ff:ff source ipv4: 10.1.1.4 dest ipv4: 10.1.1.1) ns3::lrwpan::LrWpanMacTrailer ( FCS = 0)
- 3.00208 /NodeList/3/DeviceList/0/$ns3::lrwpan::LrWpanNetDevice/Mac/MacTxDequeue ns3::lrwpan::LrWpanMacHeader (  Frame Type = 1, Sec Enable = 0, Frame Pending = 0, Ack Request = 0, PAN ID Compress = 1, Frame Vers = 1, Dst Addrs Mode = 2, Src Addr Mode = 2, Sequence Num = 152, Dst Addr Pan ID = 4660, m_addrShortDstAddr = ff:ff, Src Addr Pan ID = 4660, m_addrShortSrcAddr = ff:ff) ns3::ArpHeader (request source mac: 00-06-02:00:00:00:ff:ff source ipv4: 10.1.1.4 dest ipv4: 10.1.1.1) ns3::lrwpan::LrWpanMacTrailer ( FCS = 0)
r 3.00208 /NodeList/4/DeviceList/0/$ns3::lrwpan::LrWpanNetDevice/Mac/MacRx ns3::lrwpan::LrWpanMacHeader (  Frame Type = 1, Sec Enable = 0, Frame Pending = 0, Ack Request = 0, PAN ID Compress = 1, Frame Vers = 1, Dst Addrs Mode = 2, Src Addr Mode = 2, Sequence Num = 152, Dst Addr Pan ID = 4660, m_addrShortDstAddr = ff:ff, Src Addr Pan ID = 4660, m_addrShortSrcAddr = ff:ff) ns3::ArpHeader (request source mac: 00-06-02:00:00:00:ff:ff source ipv4: 10.1.1.4 dest ipv4: 10.1.1.1) ns3::lrwpan::LrWpanMacTrailer ( FCS = 0)
r 3.00208 /NodeList/0/DeviceList/0/$ns3::lrwpan::LrWpanNetDevice/Mac/MacRx ns3::lrwpan::LrWpanMacHeader (  Frame Type = 1, Sec Enable = 0, Frame Pending = 0, Ack Request = 0, PAN ID Compress = 1, Frame Vers = 1, Dst Addrs Mode = 2, Src Addr Mode = 2, Sequence Num = 152, Dst Addr Pan ID = 4660, m_addrShortDstAddr = ff:ff, Src Addr Pan ID = 4660, m_addrShortSrcAddr = ff:ff) ns3::ArpHeader (request source mac: 00-06-02:00:00:00:ff:ff source ipv4: 10.1.1.4 dest ipv4: 10.1.1.1) ns3::lrwpan::LrWpanMacTrailer ( FCS = 0)
r 3.00208 /NodeList/1/DeviceList/0/$ns3::lrwpan::LrWpanNetDevice/Mac/MacRx ns3::lrwpan::LrWpanMacHeader (  Frame Type = 1, Sec Enable = 0, Frame Pending = 0, Ack Request = 0, PAN ID Compress = 1, Frame Vers = 1, Dst Addrs Mode = 2, Src Addr Mode = 2, Sequence Num = 152, Dst Addr Pan ID = 4660, m_addrShortDstAddr = ff:ff, Src Addr Pan ID = 4660, m_addrShortSrcAddr = ff:ff) ns3::ArpHeader (request source mac: 00-06-02:00:00:00:ff:ff source ipv4: 10.1.1.4 dest ipv4: 10.1.1.1) ns3::lrwpan::LrWpanMacTrailer ( FCS = 0)
r 3.00208 /NodeList/2/DeviceList/0/$ns3::lrwpan::LrWpanNetDevice/Mac/MacRx ns3::lrwpan::LrWpanMacHeader (  Frame Type = 1, Sec Enable = 0, Frame Pending = 0, Ack Request = 0, PAN ID Compress = 1, Frame Vers = 1, Dst Addrs Mode = 2, Src Addr Mode = 2, Sequence Num = 152, Dst Addr Pan ID = 4660, m_addrShortDstAddr = ff:ff, Src Addr Pan ID = 4660, m_addrShortSrcAddr = ff:ff) ns3::ArpHeader (request source mac: 00-06-02:00:00:00:ff:ff source ipv4: 10.1.1.4 dest ipv4: 10.1.1.1) ns3::lrwpan::LrWpanMacTrailer ( FCS = 0)
t +3.00237s /NodeList/2/DeviceList/0/$ns3::lrwpan::LrWpanNetDevice/Mac/MacTx ns3::lrwpan::LrWpanMacHeader (  Frame Type = 1, Sec Enable = 0, Frame Pending = 0, Ack Request = 0, PAN ID Compress = 1, Frame Vers = 1, Dst Addrs Mode = 2, Src Addr Mode = 2, Sequence Num = 183, Dst Addr Pan ID = 4660, m_addrShortDstAddr = ff:ff, Src Addr Pan ID = 4660, m_addrShortSrcAddr = ff:ff) ns3::ArpHeader (request source mac: 00-06-02:00:00:00:ff:ff source ipv4: 10.1.1.3 dest ipv4: 10.1.1.1) ns3::lrwpan::LrWpanMacTrailer ( FCS = 0)
- 3.00381 /NodeList/2/DeviceList/0/$ns3::lrwpan::LrWpanNetDevice/Mac/MacTxDequeue ns3::lrwpan::LrWpanMacHeader (  Frame Type = 1, Sec Enable = 0, Frame Pending = 0, Ack Request = 0, PAN ID Compress = 1, Frame Vers = 1, Dst Addrs Mode = 2, Src Addr Mode = 2, Sequence Num = 183, Dst Addr Pan ID = 4660, m_addrShortDstAddr = ff:ff, Src Addr Pan ID = 4660, m_addrShortSrcAddr = ff:ff) ns3::ArpHeader (request source mac: 00-06-02:00:00:00:ff:ff source ipv4: 10.1.1.3 dest ipv4: 10.1.1.1) ns3::lrwpan::LrWpanMacTrailer ( FCS = 0)
r 3.00381 /NodeList/1/DeviceList/0/$ns3::lrwpan::LrWpanNetDevice/Mac/MacRx ns3::lrwpan::LrWpanMacHeader (  Frame Type = 1, Sec Enable = 0, Frame Pending = 0, Ack Request = 0, PAN ID Compress = 1, Frame Vers = 1, Dst Addrs Mode = 2, Src Addr Mode = 2, Sequence Num = 183, Dst Addr Pan ID = 4660, m_addrShortDstAddr = ff:ff, Src Addr Pan ID = 4660, m_addrShortSrcAddr = ff:ff) ns3::ArpHeader (request source mac: 00-06-02:00:00:00:ff:ff source ipv4: 10.1.1.3 dest ipv4: 10.1.1.1) ns3::lrwpan::LrWpanMacTrailer ( FCS = 0)
r 3.00381 /NodeList/0/DeviceList/0/$ns3::lrwpan::LrWpanNetDevice/Mac/MacRx ns3::lrwpan::LrWpanMacHeader (  Frame Type = 1, Sec Enable = 0, Frame Pending = 0, Ack Request = 0, PAN ID Compress = 1, Frame Vers = 1, Dst Addrs Mode = 2, Src Addr Mode = 2, Sequence Num = 183, Dst Addr Pan ID = 4660, m_addrShortDstAddr = ff:ff, Src Addr Pan ID = 4660, m_addrShortSrcAddr = ff:ff) ns3::ArpHeader (request source mac: 00-06-02:00:00:00:ff:ff source ipv4: 10.1.1.3 dest ipv4: 10.1.1.1) ns3::lrwpan::LrWpanMacTrailer ( FCS = 0)
r 3.00381 /NodeList/3/DeviceList/0/$ns3::lrwpan::LrWpanNetDevice/Mac/MacRx ns3::lrwpan::LrWpanMacHeader (  Frame Type = 1, Sec Enable = 0, Frame Pending = 0, Ack Request = 0, PAN ID Compress = 1, Frame Vers = 1, Dst Addrs Mode = 2, Src Addr Mode = 2, Sequence Num = 183, Dst Addr Pan ID = 4660, m_addrShortDstAddr = ff:ff, Src Addr Pan ID = 4660, m_addrShortSrcAddr = ff:ff) ns3::ArpHeader (request source mac: 00-06-02:00:00:00:ff:ff source ipv4: 10.1.1.3 dest ipv4: 10.1.1.1) ns3::lrwpan::LrWpanMacTrailer ( FCS = 0)
r 3.00381 /NodeList/4/DeviceList/0/$ns3::lrwpan::LrWpanNetDevice/Mac/MacRx ns3::lrwpan::LrWpanMacHeader (  Frame Type = 1, Sec Enable = 0, Frame Pending = 0, Ack Request = 0, PAN ID Compress = 1, Frame Vers = 1, Dst Addrs Mode = 2, Src Addr Mode = 2, Sequence Num = 183, Dst Addr Pan ID = 4660, m_addrShortDstAddr = ff:ff, Src Addr Pan ID = 4660, m_addrShortSrcAddr = ff:ff) ns3::ArpHeader (request source mac: 00-06-02:00:00:00:ff:ff source ipv4: 10.1.1.3 dest ipv4: 10.1.1.1) ns3::lrwpan::LrWpanMacTrailer ( FCS = 0)
t +3.00429s /NodeList/1/DeviceList/0/$ns3::lrwpan::LrWpanNetDevice/Mac/MacTx ns3::lrwpan::LrWpanMacHeader (  Frame Type = 1, Sec Enable = 0, Frame Pending = 0, Ack Request = 0, PAN ID Compress = 1, Frame Vers = 1, Dst Addrs Mode = 2, Src Addr Mode = 2, Sequence Num = 253, Dst Addr Pan ID = 4660, m_addrShortDstAddr = ff:ff, Src Addr Pan ID = 4660, m_addrShortSrcAddr = ff:ff) ns3::ArpHeader (request source mac: 00-06-02:00:00:00:ff:ff source ipv4: 10.1.1.2 dest ipv4: 10.1.1.1) ns3::lrwpan::LrWpanMacTrailer ( FCS = 0)
- 3.00573 /NodeList/1/DeviceList/0/$ns3::lrwpan::LrWpanNetDevice/Mac/MacTxDequeue ns3::lrwpan::LrWpanMacHeader (  Frame Type = 1, Sec Enable = 0, Frame Pending = 0, Ack Request = 0, PAN ID Compress = 1, Frame Vers = 1, Dst Addrs Mode = 2, Src Addr Mode = 2, Sequence Num = 253, Dst Addr Pan ID = 4660, m_addrShortDstAddr = ff:ff, Src Addr Pan ID = 4660, m_addrShortSrcAddr = ff:ff) ns3::ArpHeader (request source mac: 00-06-02:00:00:00:ff:ff source ipv4: 10.1.1.2 dest ipv4: 10.1.1.1) ns3::lrwpan::LrWpanMacTrailer ( FCS = 0)
r 3.00573 /NodeList/2/DeviceList/0/$ns3::lrwpan::LrWpanNetDevice/Mac/MacRx ns3::lrwpan::LrWpanMacHeader (  Frame Type = 1, Sec Enable = 0, Frame Pending = 0, Ack Request = 0, PAN ID Compress = 1, Frame Vers = 1, Dst Addrs Mode = 2, Src Addr Mode = 2, Sequence Num = 253, Dst Addr Pan ID = 4660, m_addrShortDstAddr = ff:ff, Src Addr Pan ID = 4660, m_addrShortSrcAddr = ff:ff) ns3::ArpHeader (request source mac: 00-06-02:00:00:00:ff:ff source ipv4: 10.1.1.2 dest ipv4: 10.1.1.1) ns3::lrwpan::LrWpanMacTrailer ( FCS = 0)
r 3.00573 /NodeList/0/DeviceList/0/$ns3::lrwpan::LrWpanNetDevice/Mac/MacRx ns3::lrwpan::LrWpanMacHeader (  Frame Type = 1, Sec Enable = 0, Frame Pending = 0, Ack Request = 0, PAN ID Compress = 1, Frame Vers = 1, Dst Addrs Mode = 2, Src Addr Mode = 2, Sequence Num = 253, Dst Addr Pan ID = 4660, m_addrShortDstAddr = ff:ff, Src Addr Pan ID = 4660, m_addrShortSrcAddr = ff:ff) ns3::ArpHeader (request source mac: 00-06-02:00:00:00:ff:ff source ipv4: 10.1.1.2 dest ipv4: 10.1.1.1) ns3::lrwpan::LrWpanMacTrailer ( FCS = 0)
r 3.00573 /NodeList/4/DeviceList/0/$ns3::lrwpan::LrWpanNetDevice/Mac/MacRx ns3::lrwpan::LrWpanMacHeader (  Frame Type = 1, Sec Enable = 0, Frame Pending = 0, Ack Request = 0, PAN ID Compress = 1, Frame Vers = 1, Dst Addrs Mode = 2, Src Addr Mode = 2, Sequence Num = 253, Dst Addr Pan ID = 4660, m_addrShortDstAddr = ff:ff, Src Addr Pan ID = 4660, m_addrShortSrcAddr = ff:ff) ns3::ArpHeader (request source mac: 00-06-02:00:00:00:ff:ff source ipv4: 10.1.1.2 dest ipv4: 10.1.1.1) ns3::lrwpan::LrWpanMacTrailer ( FCS = 0)
r 3.00573 /NodeList/3/DeviceList/0/$ns3::lrwpan::LrWpanNetDevice/Mac/MacRx ns3::lrwpan::LrWpanMacHeader (  Frame Type = 1, Sec Enable = 0, Frame Pending = 0, Ack Request = 0, PAN ID Compress = 1, Frame Vers = 1, Dst Addrs Mode = 2, Src Addr Mode = 2, Sequence Num = 253, Dst Addr Pan ID = 4660, m_addrShortDstAddr = ff:ff, Src Addr Pan ID = 4660, m_addrShortSrcAddr = ff:ff) ns3::ArpHeader (request source mac: 00-06-02:00:00:00:ff:ff source ipv4: 10.1.1.2 dest ipv4: 10.1.1.1) ns3::lrwpan::LrWpanMacTrailer ( FCS = 0)
t +3.01242s /NodeList/4/DeviceList/0/$ns3::lrwpan::LrWpanNetDevice/Mac/MacTx ns3::lrwpan::LrWpanMacHeader (  Frame Type = 1, Sec Enable = 0, Frame Pending = 0, Ack Request = 0, PAN ID Compress = 1, Frame Vers = 1, Dst Addrs Mode = 2, Src Addr Mode = 2, Sequence Num = 108, Dst Addr Pan ID = 4660, m_addrShortDstAddr = ff:ff, Src Addr Pan ID = 4660, m_addrShortSrcAddr = ff:ff) ns3::ArpHeader (request source mac: 00-06-02:00:00:00:ff:ff source ipv4: 10.1.1.5 dest ipv4: 10.1.1.1) ns3::lrwpan::LrWpanMacTrailer ( FCS = 0)
- 3.01386 /NodeList/4/DeviceList/0/$ns3::lrwpan::LrWpanNetDevice/Mac/MacTxDequeue ns3::lrwpan::LrWpanMacHeader (  Frame Type = 1, Sec Enable = 0, Frame Pending = 0, Ack Request = 0, PAN ID Compress = 1, Frame Vers = 1, Dst Addrs Mode = 2, Src Addr Mode = 2, Sequence Num = 108, Dst Addr Pan ID = 4660, m_addrShortDstAddr = ff:ff, Src Addr Pan ID = 4660, m_addrShortSrcAddr = ff:ff) ns3::ArpHeader (request source mac: 00-06-02:00:00:00:ff:ff source ipv4: 10.1.1.5 dest ipv4: 10.1.1.1) ns3::lrwpan::LrWpanMacTrailer ( FCS = 0)
r 3.01386 /NodeList/3/DeviceList/0/$ns3::lrwpan::LrWpanNetDevice/Mac/MacRx ns3::lrwpan::LrWpanMacHeader (  Frame Type = 1, Sec Enable = 0, Frame Pending = 0, Ack Request = 0, PAN ID Compress = 1, Frame Vers = 1, Dst Addrs Mode = 2, Src Addr Mode = 2, Sequence Num = 108, Dst Addr Pan ID = 4660, m_addrShortDstAddr = ff:ff, Src Addr Pan ID = 4660, m_addrShortSrcAddr = ff:ff) ns3::ArpHeader (request source mac: 00-06-02:00:00:00:ff:ff source ipv4: 10.1.1.5 dest ipv4: 10.1.1.1) ns3::lrwpan::LrWpanMacTrailer ( FCS = 0)
r 3.01386 /NodeList/0/DeviceList/0/$ns3::lrwpan::LrWpanNetDevice/Mac/MacRx ns3::lrwpan::LrWpanMacHeader (  Frame Type = 1, Sec Enable = 0, Frame Pending = 0, Ack Request = 0, PAN ID Compress = 1, Frame Vers = 1, Dst Addrs Mode = 2, Src Addr Mode = 2, Sequence Num = 108, Dst Addr Pan ID = 4660, m_addrShortDstAddr = ff:ff, Src Addr Pan ID = 4660, m_addrShortSrcAddr = ff:ff) ns3::ArpHeader (request source mac: 00-06-02:00:00:00:ff:ff source ipv4: 10.1.1.5 dest ipv4: 10.1.1.1) ns3::lrwpan::LrWpanMacTrailer ( FCS = 0)
r 3.01386 /NodeList/1/DeviceList/0/$ns3::lrwpan::LrWpanNetDevice/Mac/MacRx ns3::lrwpan::LrWpanMacHeader (  Frame Type = 1, Sec Enable = 0, Frame Pending = 0, Ack Request = 0, PAN ID Compress = 1, Frame Vers = 1, Dst Addrs Mode = 2, Src Addr Mode = 2, Sequence Num = 108, Dst Addr Pan ID = 4660, m_addrShortDstAddr = ff:ff, Src Addr Pan ID = 4660, m_addrShortSrcAddr = ff:ff) ns3::ArpHeader (request source mac: 00-06-02:00:00:00:ff:ff source ipv4: 10.1.1.5 dest ipv4: 10.1.1.1) ns3::lrwpan::LrWpanMacTrailer ( FCS = 0)
r 3.01386 /NodeList/2/DeviceList/0/$ns3::lrwpan::LrWpanNetDevice/Mac/MacRx ns3::lrwpan::LrWpanMacHeader (  Frame Type = 1, Sec Enable = 0, Frame Pending = 0, Ack Request = 0, PAN ID Compress = 1, Frame Vers = 1, Dst Addrs Mode = 2, Src Addr Mode = 2, Sequence Num = 108, Dst Addr Pan ID = 4660, m_addrShortDstAddr = ff:ff, Src Addr Pan ID = 4660, m_addrShortSrcAddr = ff:ff) ns3::ArpHeader (request source mac: 00-06-02:00:00:00:ff:ff source ipv4: 10.1.1.5 dest ipv4: 10.1.1.1) ns3::lrwpan::LrWpanMacTrailer ( FCS = 0)
+ 4 /NodeList/1/DeviceList/0/$ns3::lrwpan::LrWpanNetDevice/Mac/MacTxEnqueue ns3::lrwpan::LrWpanMacHeader (  Frame Type = 1, Sec Enable = 0, Frame Pending = 0, Ack Request = 0, PAN ID Compress = 1, Frame Vers = 1, Dst Addrs Mode = 2, Src Addr Mode = 2, Sequence Num = 254, Dst Addr Pan ID = 4660, m_addrShortDstAddr = ff:ff, Src Addr Pan ID = 4660, m_addrShortSrcAddr = ff:ff) ns3::ArpHeader (request source mac: 00-06-02:00:00:00:ff:ff source ipv4: 10.1.1.2 dest ipv4: 10.1.1.1) ns3::lrwpan::LrWpanMacTrailer ( FCS = 0)